 vasp.6.1.0 28Jan20 (build Jan 12 2021 17:29:42) complex                        
  
 executed on             LinuxIFC date 2021.01.25  19:32:02
 serial version


--------------------------------------------------------------------------------------------------------


 INCAR:
 POTCAR:    PAW_PBE Si_GW 04May2012               
 POTCAR:    PAW_PBE C_GW 28Sep2005                
 POTCAR:    PAW_PBE Si_GW 04May2012               
   VRHFIN =Si: s2p2                                                                                 
   LEXCH  = PE                                                                                      
   EATOM  =   103.0669 eV,    7.5752 Ry                                                             
                                                                                                    
   TITEL  = PAW_PBE Si_GW 04May2012                                                                 
   LULTRA =        F    use ultrasoft PP ?                                                          
   IUNSCR =        1    unscreen: 0-lin 1-nonlin 2-no                                               
   RPACOR =    1.500    partial core radius                                                         
   POMASS =   28.085; ZVAL   =    4.000    mass and valenz                                          
   RCORE  =    1.900    outmost cutoff radius                                                       
   RWIGS  =    2.480; RWIGS  =    1.312    wigner-seitz radius (au A)                               
   ENMAX  =  245.345; ENMIN  =  184.009 eV                                                          
   ICORE  =        3    local potential                                                             
   LCOR   =        T    correct aug charges                                                         
   LPAW   =        T    paw PP                                                                      
   EAUG   =  412.952                                                                                
   DEXC   =    0.000                                                                                
   RMAX   =    1.950    core radius for proj-oper                                                   
   RAUG   =    1.300    factor for augmentation sphere                                              
   RDEP   =    1.993    radius for radial grids                                                     
   RDEPT  =    2.000    core radius for aug-charge                                                  
                                                                                                    
   Atomic configuration                                                                             
    7 entries                                                                                       
     n  l   j            E        occ.                                                              
     1  0  0.50     -1785.8828   2.0000                                                             
     2  0  0.50      -139.4969   2.0000                                                             
     2  1  1.50       -95.5546   6.0000                                                             
     3  0  0.50       -10.8127   2.0000                                                             
     3  1  0.50        -4.0811   2.0000                                                             
     3  2  1.50        -4.0817   0.0000                                                             
     4  3  2.50        -4.0817   0.0000                                                             
   Description                                                                                      
     l       E           TYP  RCUT    TYP  RCUT                                                     
     0    -10.8127223     23  1.900                                                                 
     0     95.2407820     23  1.900                                                                 
     1     -4.0811372     23  1.900                                                                 
     1     54.4233040     23  1.900                                                                 
     2     -8.1634956     23  1.900                                                                 
     2     81.6349560     23  1.900                                                                 
     3     27.2116520     23  1.900                                                                 
  local pseudopotential read in
  partial core-charges read in
  partial kinetic energy density read in
  kinetic energy density of atom read in
  atomic valenz-charges read in
  non local Contribution for L=           0  read in
    real space projection operators read in
  non local Contribution for L=           0  read in
    real space projection operators read in
  non local Contribution for L=           1  read in
    real space projection operators read in
  non local Contribution for L=           1  read in
    real space projection operators read in
  non local Contribution for L=           2  read in
    real space projection operators read in
  non local Contribution for L=           2  read in
    real space projection operators read in
    PAW grid and wavefunctions read in
 
   number of l-projection  operators is LMAX  =           6
   number of lm-projection operators is LMMAX =          18
 
 POTCAR:    PAW_PBE C_GW 28Sep2005                
   VRHFIN =C: s2p2                                                                                  
   LEXCH  = PE                                                                                      
   EATOM  =   147.1560 eV,   10.8157 Ry                                                             
                                                                                                    
   TITEL  = PAW_PBE C_GW 28Sep2005                                                                  
   LULTRA =        F    use ultrasoft PP ?                                                          
   IUNSCR =        0    unscreen: 0-lin 1-nonlin 2-no                                               
   RPACOR =    0.000    partial core radius                                                         
   POMASS =   12.011; ZVAL   =    4.000    mass and valenz                                          
   RCORE  =    1.500    outmost cutoff radius                                                       
   RWIGS  =    1.630; RWIGS  =    0.863    wigner-seitz radius (au A)                               
   ENMAX  =  413.992; ENMIN  =  310.494 eV                                                          
   ICORE  =        2    local potential                                                             
   LCOR   =        T    correct aug charges                                                         
   LPAW   =        T    paw PP                                                                      
   EAUG   =  644.873                                                                                
   DEXC   =    0.000                                                                                
   RMAX   =    1.529    core radius for proj-oper                                                   
   RAUG   =    1.300    factor for augmentation sphere                                              
   RDEP   =    1.501    radius for radial grids                                                     
   RDEPT  =    1.300    core radius for aug-charge                                                  
                                                                                                    
   Atomic configuration                                                                             
    4 entries                                                                                       
     n  l   j            E        occ.                                                              
     1  0  0.50      -273.3789   2.0000                                                             
     2  0  0.50       -13.7508   2.0000                                                             
     2  1  0.50        -5.2854   2.0000                                                             
     3  2  1.50        -5.4423   0.0000                                                             
   Description                                                                                      
     l       E           TYP  RCUT    TYP  RCUT                                                     
     0    -13.7508457     23  1.200                                                                 
     0     95.2407820     23  1.200                                                                 
     1     -5.2854382     23  1.500                                                                 
     1    108.8466080     23  1.500                                                                 
     2     -5.4423304      7  1.500                                                                 
  local pseudopotential read in
  kinetic energy density of atom read in
  atomic valenz-charges read in
  non local Contribution for L=           0  read in
    real space projection operators read in
  non local Contribution for L=           0  read in
    real space projection operators read in
  non local Contribution for L=           1  read in
    real space projection operators read in
  non local Contribution for L=           1  read in
    real space projection operators read in
    PAW grid and wavefunctions read in
 
   number of l-projection  operators is LMAX  =           4
   number of lm-projection operators is LMMAX =           8
 
  PAW_PBE Si_GW 04May2012               :
 energy of atom  1       EATOM= -103.0669
 kinetic energy error for atom=    0.0011 (will be added to EATOM!!)
  PAW_PBE C_GW 28Sep2005                :
 energy of atom  2       EATOM= -147.1560
 kinetic energy error for atom=    0.0217 (will be added to EATOM!!)
 
 
 POSCAR: system SiC
  positions in cartesian coordinates
  No initial velocities read in
 exchange correlation table for  LEXCH =        8
   RHO(1)=    0.500       N(1)  =     2000
   RHO(2)=  100.500       N(2)  =     4000
 


--------------------------------------------------------------------------------------------------------


 ion  position               nearest neighbor table
   1  0.000  0.000  0.000-   2 1.88   2 1.88   2 1.88   2 1.88
   2  0.250  0.250  0.250-   1 1.88   1 1.88   1 1.88   1 1.88
 
  LATTYP: Found a face centered cubic cell.
 ALAT       =     4.3500000000
  
  Lattice vectors:
  
 A1 = (   2.1750000000,   2.1750000000,   0.0000000000)
 A2 = (   0.0000000000,   2.1750000000,   2.1750000000)
 A3 = (   2.1750000000,   0.0000000000,   2.1750000000)


Analysis of symmetry for initial positions (statically):
=====================================================================
 Subroutine PRICEL returns:
 Original cell was already a primitive cell.
 

 Routine SETGRP: Setting up the symmetry group for a 
 face centered cubic supercell.


 Subroutine GETGRP returns: Found 24 space group operations
 (whereof 24 operations were pure point group operations)
 out of a pool of 48 trial point group operations.


The static configuration has the point symmetry T_d .


Analysis of symmetry for dynamics (positions and initial velocities):
=====================================================================
 Subroutine PRICEL returns:
 Original cell was already a primitive cell.
 

 Routine SETGRP: Setting up the symmetry group for a 
 face centered cubic supercell.


 Subroutine GETGRP returns: Found 24 space group operations
 (whereof 24 operations were pure point group operations)
 out of a pool of 48 trial point group operations.


The dynamic configuration has the point symmetry T_d .


 Subroutine INISYM returns: Found 24 space group operations
 (whereof 24 operations are pure point group operations),
 and found     1 'primitive' translations


----------------------------------------------------------------------------------------

                                     Primitive cell                                     

  volume of cell :      20.5782

  direct lattice vectors                    reciprocal lattice vectors
     2.175000000  2.175000000  0.000000000     0.229885057  0.229885057 -0.229885057
     0.000000000  2.175000000  2.175000000    -0.229885057  0.229885057  0.229885057
     2.175000000  0.000000000  2.175000000     0.229885057 -0.229885057  0.229885057

  length of vectors
     3.075914498  3.075914498  3.075914498     0.398172599  0.398172599  0.398172599

  position of ions in fractional coordinates (direct lattice)
     0.000000000  0.000000000  0.000000000
     0.250000000  0.250000000  0.250000000

  ion indices of the primitive-cell ions
   primitive index   ion index
                 1           1
                 2           2

----------------------------------------------------------------------------------------

 
 
 KPOINTS: 6x6x6                                   

Automatic generation of k-mesh.
Space group operators:
 irot       det(A)        alpha          n_x          n_y          n_z        tau_x        tau_y        tau_z
    1     1.000000     0.000001     1.000000     0.000000     0.000000     0.000000     0.000000     0.000000
    2     1.000000   120.000000    -0.577350    -0.577350    -0.577350     0.000000     0.000000     0.000000
    3     1.000000   120.000000     0.577350     0.577350     0.577350     0.000000     0.000000     0.000000
    4    -1.000000    90.000000     0.000000    -1.000000    -0.000000     0.000000     0.000000     0.000000
    5    -1.000000   179.999999     0.707107     0.707107    -0.000000     0.000000     0.000000     0.000000
    6    -1.000000    90.000000     1.000000    -0.000000    -0.000000     0.000000     0.000000     0.000000
    7     1.000000   179.999999    -0.000000    -1.000000    -0.000000     0.000000     0.000000     0.000000
    8     1.000000   120.000000     0.577350     0.577350    -0.577350     0.000000     0.000000     0.000000
    9     1.000000   120.000000     0.577350    -0.577350    -0.577350     0.000000     0.000000     0.000000
   10    -1.000000    90.000000     0.000000     1.000000     0.000000     0.000000     0.000000     0.000000
   11    -1.000000    90.000000     0.000000     0.000000    -1.000000     0.000000     0.000000     0.000000
   12    -1.000000   179.999999    -0.000000    -0.707107    -0.707107     0.000000     0.000000     0.000000
   13     1.000000   120.000000    -0.577350     0.577350     0.577350     0.000000     0.000000     0.000000
   14     1.000000   120.000000    -0.577350     0.577350    -0.577350     0.000000     0.000000     0.000000
   15     1.000000   179.999999    -0.000000    -0.000000    -1.000000     0.000000     0.000000     0.000000
   16    -1.000000    90.000000    -1.000000     0.000000     0.000000     0.000000     0.000000     0.000000
   17    -1.000000   179.999999     0.707107     0.000000     0.707107     0.000000     0.000000     0.000000
   18    -1.000000    90.000000     0.000000     0.000000     1.000000     0.000000     0.000000     0.000000
   19     1.000000   120.000000    -0.577350    -0.577350     0.577350     0.000000     0.000000     0.000000
   20     1.000000   179.999999     1.000000     0.000000     0.000000     0.000000     0.000000     0.000000
   21     1.000000   120.000000     0.577350    -0.577350     0.577350     0.000000     0.000000     0.000000
   22    -1.000000   179.999999    -0.707107     0.707107    -0.000000     0.000000     0.000000     0.000000
   23    -1.000000   179.999999     0.707107     0.000000    -0.707107     0.000000     0.000000     0.000000
   24    -1.000000   180.000000    -0.000000     0.707107    -0.707107     0.000000     0.000000     0.000000
 
 Subroutine IBZKPT returns following result:
 ===========================================
 
 Found     16 irreducible k-points:
 
 Following reciprocal coordinates:
            Coordinates               Weight
  0.000000  0.000000  0.000000      1.000000
  0.166667  0.000000  0.000000      8.000000
  0.333333 -0.000000 -0.000000      8.000000
  0.500000 -0.000000  0.000000      4.000000
  0.166667  0.166667 -0.000000      6.000000
  0.333333  0.166667  0.000000     24.000000
  0.500000  0.166667 -0.000000     24.000000
 -0.333333  0.166667  0.000000     24.000000
 -0.166667  0.166667  0.000000     12.000000
  0.333333  0.333333 -0.000000      6.000000
  0.500000  0.333333  0.000000     24.000000
 -0.333333  0.333333 -0.000000     12.000000
  0.500000  0.500000 -0.000000      3.000000
  0.500000  0.333333  0.166667     24.000000
 -0.333333  0.333333  0.166667     24.000000
 -0.333333  0.500000  0.166667     12.000000
 
 Following cartesian coordinates:
            Coordinates               Weight
  0.000000  0.000000  0.000000      1.000000
  0.166667  0.166667 -0.166667      8.000000
  0.333333  0.333333 -0.333333      8.000000
  0.500000  0.500000 -0.500000      4.000000
  0.000000  0.333333 -0.000000      6.000000
  0.166667  0.500000 -0.166667     24.000000
  0.333333  0.666667 -0.333333     24.000000
 -0.500000 -0.166667  0.500000     24.000000
 -0.333333 -0.000000  0.333333     12.000000
 -0.000000  0.666667  0.000000      6.000000
  0.166667  0.833333 -0.166667     24.000000
 -0.666667  0.000000  0.666667     12.000000
 -0.000000  1.000000 -0.000000      3.000000
  0.333333  0.666667 -0.000000     24.000000
 -0.500000 -0.166667  0.833333     24.000000
 -0.666667  0.000000  1.000000     12.000000
 


--------------------------------------------------------------------------------------------------------




 Dimension of arrays:
   k-points           NKPTS =     16   k-points in BZ     NKDIM =     16   number of bands    NBANDS=     64
   number of dos      NEDOS =   4000   number of ions     NIONS =      2
   non local maximal  LDIM  =      6   non local SUM 2l+1 LMDIM =     18
   total plane-waves  NPLWV =   4096
   max r-space proj   IRMAX =      1   max aug-charges    IRDMAX=   9969
   dimension x,y,z NGX =    16 NGY =   16 NGZ =   16
   dimension x,y,z NGXF=    32 NGYF=   32 NGZF=   32
   support grid    NGXF=    32 NGYF=   32 NGZF=   32
   ions per type =               1   1
   NGX,Y,Z   is equivalent  to a cutoff of   8.65,  8.65,  8.65 a.u.
   NGXF,Y,Z  is equivalent  to a cutoff of  17.30, 17.30, 17.30 a.u.

 SYSTEM =  unknown system                          
 POSCAR =  system SiC                              

 Startparameter for this run:
   NWRITE =      2    write-flag & timer
   PREC   = normal    normal or accurate (medium, high low for compatibility)
   ISTART =      1    job   : 0-new  1-cont  2-samecut
   ICHARG =      0    charge: 1-file 2-atom 10-const
   ISPIN  =      1    spin polarized calculation?
   LNONCOLLINEAR =      F non collinear calculations
   LSORBIT =      F    spin-orbit coupling
   INIWAV =      1    electr: 0-lowe 1-rand  2-diag
   LASPH  =      F    aspherical Exc in radial PAW
   METAGGA=      F    non-selfconsistent MetaGGA calc.

 Electronic Relaxation 1
   ENCUT  =  414.0 eV  30.43 Ry    5.52 a.u.   5.10  5.10  5.10*2*pi/ulx,y,z
   ENINI  =  414.0     initial cutoff
   ENAUG  =  644.9 eV  augmentation charge cutoff
   NELM   =     60;   NELMIN=  2; NELMDL=  0     # of ELM steps 
   EDIFF  = 0.1E-07   stopping-criterion for ELM
   LREAL  =      F    real-space projection
   NLSPLINE    = F    spline interpolate recip. space projectors
   LCOMPAT=      F    compatible to vasp.4.4
   GGA_COMPAT  = T    GGA compatible to vasp.4.4-vasp.4.6
   LMAXPAW     = -100 max onsite density
   LMAXMIX     =    2 max onsite mixed and CHGCAR
   VOSKOWN=      0    Vosko Wilk Nusair interpolation
   ROPT   =    0.00000   0.00000
 Ionic relaxation
   EDIFFG = 0.1E-06   stopping-criterion for IOM
   NSW    =      0    number of steps for IOM
   NBLOCK =      1;   KBLOCK =      1    inner block; outer block 
   IBRION =     -1    ionic relax: 0-MD 1-quasi-New 2-CG
   NFREE  =      0    steps in history (QN), initial steepest desc. (CG)
   ISIF   =      2    stress and relaxation
   IWAVPR =      0    prediction:  0-non 1-charg 2-wave 3-comb
   ISYM   =      2    0-nonsym 1-usesym 2-fastsym
   LCORR  =      T    Harris-Foulkes like correction to forces

   POTIM  = 0.5000    time-step for ionic-motion
   TEIN   =    0.0    initial temperature
   TEBEG  =    0.0;   TEEND  =   0.0 temperature during run
   SMASS  =  -3.00    Nose mass-parameter (am)
   estimated Nose-frequenzy (Omega)   =  0.10E-29 period in steps = 0.13E+47 mass=  -0.216E-27a.u.
   SCALEE = 1.0000    scale energy and forces
   NPACO  =    256;   APACO  = 16.0  distance and # of slots for P.C.
   PSTRESS=    0.0 pullay stress

  Mass of Ions in am
   POMASS =  28.09 12.01
  Ionic Valenz
   ZVAL   =   4.00  4.00
  Atomic Wigner-Seitz radii
   RWIGS  =  -1.00 -1.00
  virtual crystal weights 
   VCA    =   1.00  1.00
   NELECT =       8.0000    total number of electrons
   NUPDOWN=      -1.0000    fix difference up-down

 DOS related values:
   EMIN   =  10.00;   EMAX   =-10.00  energy-range for DOS
   EFERMI =   0.00
   ISMEAR =     0;   SIGMA  =   0.01  broadening in eV -4-tet -1-fermi 0-gaus

 Electronic relaxation 2 (details)
   IALGO  =     90    algorithm
   LDIAG  =      T    sub-space diagonalisation (order eigenvalues)
   LSUBROT=      F    optimize rotation matrix (better conditioning)
   TURBO    =      0    0=normal 1=particle mesh
   IRESTART =      0    0=no restart 2=restart with 2 vectors
   NREBOOT  =      0    no. of reboots
   NMIN     =      0    reboot dimension
   EREF     =   0.00    reference energy to select bands
   IMIX   =      4    mixing-type and parameters
     AMIX     =   0.40;   BMIX     =  1.00
     AMIX_MAG =   1.60;   BMIX_MAG =  1.00
     AMIN     =   0.10
     WC   =   100.;   INIMIX=   1;  MIXPRE=   1;  MAXMIX= -45

 Intra band minimization:
   WEIMIN = 0.0000     energy-eigenvalue tresh-hold
   EBREAK =  0.39E-10  absolut break condition
   DEPER  =   0.30     relativ break condition  

   TIME   =   0.40     timestep for ELM

  volume/ion in A,a.u.               =      10.29        69.43
  Fermi-wavevector in a.u.,A,eV,Ry     =   1.194819  2.257881 19.423585  1.427593
  Thomas-Fermi vector in A             =   2.330800
 
 Write flags
   LWAVE        =      T    write WAVECAR
   LDOWNSAMPLE  =      F    k-point downsampling of WAVECAR
   LCHARG       =      T    write CHGCAR
   LVTOT        =      F    write LOCPOT, total local potential
   LVHAR        =      F    write LOCPOT, Hartree potential only
   LELF         =      F    write electronic localiz. function (ELF)
   LORBIT       =      0    0 simple, 1 ext, 2 COOP (PROOUT), +10 PAW based schemes


 Dipole corrections
   LMONO  =      F    monopole corrections only (constant potential shift)
   LDIPOL =      F    correct potential (dipole corrections)
   IDIPOL =      0    1-x, 2-y, 3-z, 4-all directions 
   EPSILON=  1.0000000 bulk dielectric constant

 Exchange correlation treatment:
   GGA     =    --    GGA type
   LEXCH   =     8    internal setting for exchange type
   VOSKOWN=      0    Vosko Wilk Nusair interpolation
   LHFCALC =     F    Hartree Fock is set to
   LHFONE  =     F    Hartree Fock one center treatment
   AEXX    =    0.0000 exact exchange contribution

 Linear response parameters
   LEPSILON=     F    determine dielectric tensor
   LRPA    =     F    only Hartree local field effects (RPA)
   LNABLA  =     F    use nabla operator in PAW spheres
   LVEL    =     F    velocity operator in full k-point grid
   LINTERFAST=   F  fast interpolation
   KINTER  =     0    interpolate to denser k-point grid
   CSHIFT  =0.1000    complex shift for real part using Kramers Kronig
   OMEGAMAX=  -1.0    maximum frequency
   DEG_THRESHOLD= 0.2000000E-02 threshold for treating states as degnerate
   RTIME   =   -0.100 relaxation time in fs
  (WPLASMAI=    0.000 imaginary part of plasma frequency in eV, 0.658/RTIME)
   DFIELD  = 0.0000000 0.0000000 0.0000000 field for delta impulse in time
 
 Orbital magnetization related:
   ORBITALMAG=     F  switch on orbital magnetization
   LCHIMAG   =     F  perturbation theory with respect to B field
   DQ        =  0.001000  dq finite difference perturbation B field
   LLRAUG    =     F  two centre corrections for induced B field



--------------------------------------------------------------------------------------------------------


 Static calculation
 charge density and potential will be updated during run
 non-spin polarized calculation
 Exact diagonalization
 preconditioned conjugated gradient (Jacobi prec)
    charged. constant during bandupdate  
    band-by band algorithm
 perform sub-space diagonalisation
    after iterative eigenvector-optimisation
 modified Broyden-mixing scheme, WC =      100.0
 initial mixing is a Kerker type mixing with AMIX =  0.4000 and BMIX =      1.0000
 Hartree-type preconditioning will be used
 using additional bands           60
 reciprocal scheme for non local part
 use partial core corrections
 calculate Harris-corrections to forces 
   (improved forces if not selfconsistent)
 use gradient corrections 
 use of overlap-Matrix (Vanderbilt PP)
 Gauss-broadening in eV      SIGMA  =   0.01


--------------------------------------------------------------------------------------------------------


  energy-cutoff  :      413.99
  volume of cell :       20.58
      direct lattice vectors                 reciprocal lattice vectors
     2.175000000  2.175000000  0.000000000     0.229885057  0.229885057 -0.229885057
     0.000000000  2.175000000  2.175000000    -0.229885057  0.229885057  0.229885057
     2.175000000  0.000000000  2.175000000     0.229885057 -0.229885057  0.229885057

  length of vectors
     3.075914498  3.075914498  3.075914498     0.398172599  0.398172599  0.398172599


 
 old parameters found on file WAVECAR:
  energy-cutoff  :      413.99
  volume of cell :       20.58
      direct lattice vectors                 reciprocal lattice vectors
     2.175000000  2.175000000  0.000000000     0.229885057  0.229885057 -0.229885057
     0.000000000  2.175000000  2.175000000    -0.229885057  0.229885057  0.229885057
     2.175000000  0.000000000  2.175000000     0.229885057 -0.229885057  0.229885057

  length of vectors

 
 k-points in units of 2pi/SCALE and weight: 6x6x6                                   
   0.00000000  0.00000000  0.00000000       0.005
   0.16666667  0.16666667 -0.16666667       0.037
   0.33333333  0.33333333 -0.33333333       0.037
   0.50000000  0.50000000 -0.50000000       0.019
  -0.00000000  0.33333333  0.00000000       0.028
   0.16666667  0.50000000 -0.16666667       0.111
   0.33333333  0.66666667 -0.33333333       0.111
  -0.50000000 -0.16666667  0.50000000       0.111
  -0.33333333 -0.00000000  0.33333333       0.056
   0.00000000  0.66666667 -0.00000000       0.028
   0.16666667  0.83333333 -0.16666667       0.111
  -0.66666667  0.00000000  0.66666667       0.056
  -0.00000000  1.00000000 -0.00000000       0.014
   0.33333333  0.66666667 -0.00000000       0.111
  -0.50000000 -0.16666667  0.83333333       0.111
  -0.66666667  0.00000000  1.00000000       0.056
 
 k-points in reciprocal lattice and weights: 6x6x6                                   
   0.00000000  0.00000000  0.00000000       0.005
   0.16666667  0.00000000  0.00000000       0.037
   0.33333333 -0.00000000 -0.00000000       0.037
   0.50000000 -0.00000000  0.00000000       0.019
   0.16666667  0.16666667 -0.00000000       0.028
   0.33333333  0.16666667  0.00000000       0.111
   0.50000000  0.16666667 -0.00000000       0.111
  -0.33333333  0.16666667  0.00000000       0.111
  -0.16666667  0.16666667  0.00000000       0.056
   0.33333333  0.33333333 -0.00000000       0.028
   0.50000000  0.33333333  0.00000000       0.111
  -0.33333333  0.33333333 -0.00000000       0.056
   0.50000000  0.50000000 -0.00000000       0.014
   0.50000000  0.33333333  0.16666667       0.111
  -0.33333333  0.33333333  0.16666667       0.111
  -0.33333333  0.50000000  0.16666667       0.056
 
 position of ions in fractional coordinates (direct lattice) 
   0.00000000  0.00000000  0.00000000
   0.25000000  0.25000000  0.25000000
 
 position of ions in cartesian coordinates  (Angst):
   0.00000000  0.00000000  0.00000000
   1.08750000  1.08750000  1.08750000
 


--------------------------------------------------------------------------------------------------------


 k-point   1 :   0.0000 0.0000 0.0000  plane waves:     411
 k-point   2 :   0.1667 0.0000 0.0000  plane waves:     380
 k-point   3 :   0.3333-0.0000-0.0000  plane waves:     401
 k-point   4 :   0.5000-0.0000 0.0000  plane waves:     392
 k-point   5 :   0.1667 0.1667-0.0000  plane waves:     383
 k-point   6 :   0.3333 0.1667 0.0000  plane waves:     390
 k-point   7 :   0.5000 0.1667-0.0000  plane waves:     393
 k-point   8 :  -0.3333 0.1667 0.0000  plane waves:     394
 k-point   9 :  -0.1667 0.1667 0.0000  plane waves:     385
 k-point  10 :   0.3333 0.3333-0.0000  plane waves:     387
 k-point  11 :   0.5000 0.3333 0.0000  plane waves:     392
 k-point  12 :  -0.3333 0.3333-0.0000  plane waves:     403
 k-point  13 :   0.5000 0.5000-0.0000  plane waves:     388
 k-point  14 :   0.5000 0.3333 0.1667  plane waves:     397
 k-point  15 :  -0.3333 0.3333 0.1667  plane waves:     394
 k-point  16 :  -0.3333 0.5000 0.1667  plane waves:     390

 maximum number of plane-waves:       411
 maximum index in each direction: 
   IXMAX=    5   IYMAX=    5   IZMAX=    5
   IXMIN=   -5   IYMIN=   -5   IZMIN=   -5


 total amount of memory used by VASP MPI-rank0    41181. kBytes
=======================================================================

   base      :      30000. kBytes
   nonl-proj :       1907. kBytes
   grid      :       2084. kBytes
   one-center:         31. kBytes
   wavefun   :       7159. kBytes
 
     INWAV:  cpu time    0.0150: real time    0.0151
 Broyden mixing: mesh for mixing (old mesh)
   NGX = 11   NGY = 11   NGZ = 11
  (NGX  = 32   NGY  = 32   NGZ  = 32)
  gives a total of   1331 points

 charge density for first step will be calculated from the start-wavefunctions


--------------------------------------------------------------------------------------------------------


 Maximum index for augmentation-charges         9453 (set IRDMAX)


--------------------------------------------------------------------------------------------------------


 initial charge from wavefunction
 First call to EWALD:  gamma=   0.647
 Maximum number of real-space cells 3x 3x 3
 Maximum number of reciprocal cells 3x 3x 3

    FEWALD:  cpu time    0.0010: real time    0.0014


--------------------------------------- Iteration      1(   1)  ---------------------------------------


    POTLOK:  cpu time    0.0130: real time    0.0135
    SETDIJ:  cpu time    0.0040: real time    0.0037

 total amount of memory used by VASP MPI-rank0    87160. kBytes
=======================================================================

   base      :      30000. kBytes
   nonl-proj :       1907. kBytes
   grid      :       2084. kBytes
   one-center:         31. kBytes
   wavefun   :      53138. kBytes
 
    EDDIAG:  cpu time    3.3005: real time    3.3039
       DOS:  cpu time    0.0010: real time    0.0009
    CHARGE:  cpu time    0.0070: real time    0.0071
    MIXING:  cpu time    0.0010: real time    0.0005
    --------------------------------------------
      LOOP:  cpu time    3.3265: real time    3.3296

 eigenvalue-minimisations  :     0
 total energy-change (2. order) :-0.1501530E+02  ( 0.0000000E+00)
 number of electron       7.9999998 magnetization 
 augmentation part       -0.1684250 magnetization 

 Broyden mixing:
  rms(total) = 0.34063E-05    rms(broyden)= 0.32634E-06
  rms(prec ) = 0.12882E-05
  weight for this iteration     100.00
  WARNING: grid for Broyden might be to small

 Free energy of the ion-electron system (eV)
  ---------------------------------------------------
  alpha Z        PSCENC =        13.84060435
  Ewald energy   TEWEN  =      -285.31033112
  -Hartree energ DENC   =       -31.74526502
  -exchange      EXHF   =         0.00000000
  -V(xc)+E(xc)   XCENC  =         6.18226778
  PAW double counting   =       328.38214021     -312.00335340
  entropy T*S    EENTRO =        -0.00000000
  eigenvalues    EBANDS =        15.43858089
  atomic energy  EATOM  =       250.20005271
  Solvation  Ediel_sol  =         0.00000000
  ---------------------------------------------------
  free energy    TOTEN  =       -15.01530360 eV

  energy without entropy =      -15.01530360  energy(sigma->0) =      -15.01530360


--------------------------------------------------------------------------------------------------------




--------------------------------------- Iteration      1(   2)  ---------------------------------------


    POTLOK:  cpu time    0.0120: real time    0.0633
    SETDIJ:  cpu time    0.0040: real time    0.0037

 total amount of memory used by VASP MPI-rank0    87160. kBytes
=======================================================================

   base      :      30000. kBytes
   nonl-proj :       1907. kBytes
   grid      :       2084. kBytes
   one-center:         31. kBytes
   wavefun   :      53138. kBytes
 
    EDDIAG:  cpu time    3.3115: real time    3.3334
       DOS:  cpu time    0.0010: real time    0.0009
    --------------------------------------------
      LOOP:  cpu time    3.3285: real time    3.4012

 eigenvalue-minimisations  :     0
 total energy-change (2. order) :-0.9367795E-10  ( 0.0000000E+00)
 number of electron       7.9999998 magnetization 
 augmentation part       -0.1684250 magnetization 

 Free energy of the ion-electron system (eV)
  ---------------------------------------------------
  alpha Z        PSCENC =        13.84060435
  Ewald energy   TEWEN  =      -285.31033112
  -Hartree energ DENC   =       -31.74526131
  -exchange      EXHF   =         0.00000000
  -V(xc)+E(xc)   XCENC  =         6.18226747
  PAW double counting   =       328.38212967     -312.00334282
  entropy T*S    EENTRO =        -0.00000000
  eigenvalues    EBANDS =        15.43857744
  atomic energy  EATOM  =       250.20005271
  Solvation  Ediel_sol  =         0.00000000
  ---------------------------------------------------
  free energy    TOTEN  =       -15.01530360 eV

  energy without entropy =      -15.01530360  energy(sigma->0) =      -15.01530360


--------------------------------------------------------------------------------------------------------




 average (electrostatic) potential at core
  the test charge radii are     1.1243  0.6991
  (the norm of the test charge is              1.0000)
       1 -64.0977       2 -45.0496
 
 
 
 E-fermi :   7.9069     XC(G=0): -11.3608     alpha+bet :-16.1752


 k-point     1 :       0.0000    0.0000    0.0000
  band No.  band energies     occupation 
      1      -7.6172      2.00000
      2       7.8399      2.00000
      3       7.8402      2.00000
      4       7.8402      2.00000
      5      14.1258      0.00000
      6      15.1756      0.00000
      7      15.1756      0.00000
      8      15.1756      0.00000
      9      22.3607      0.00000
     10      22.3607      0.00000
     11      24.3809      0.00000
     12      25.1440      0.00000
     13      25.1440      0.00000
     14      25.1440      0.00000
     15      31.4280      0.00000
     16      41.6129      0.00000
     17      41.6130      0.00000
     18      41.6130      0.00000
     19      49.5797      0.00000
     20      49.5797      0.00000
     21      49.5797      0.00000
     22      50.8549      0.00000
     23      50.8549      0.00000
     24      55.3667      0.00000
     25      55.3667      0.00000
     26      55.3667      0.00000
     27      67.5952      0.00000
     28      68.1237      0.00000
     29      68.1237      0.00000
     30      68.1237      0.00000
     31      70.3738      0.00000
     32      70.3738      0.00000
     33      70.8529      0.00000
     34      70.8529      0.00000
     35      70.8529      0.00000
     36      77.6768      0.00000
     37      77.6768      0.00000
     38      77.7462      0.00000
     39      78.7063      0.00000
     40      78.7063      0.00000
     41      78.7063      0.00000
     42      80.0559      0.00000
     43      80.0559      0.00000
     44      80.0559      0.00000
     45      81.1706      0.00000
     46      81.1706      0.00000
     47      81.1706      0.00000
     48      81.3006      0.00000
     49      81.3006      0.00000
     50      81.3006      0.00000
     51      86.9081      0.00000
     52      86.9081      0.00000
     53      86.9081      0.00000
     54      88.8000      0.00000
     55      90.4780      0.00000
     56      90.4780      0.00000
     57      90.4780      0.00000
     58      92.0499      0.00000
     59     106.3502      0.00000
     60     112.7803      0.00000
     61     112.7808      0.00000
     62     112.7808      0.00000
     63     113.1729      0.00000
     64     113.1729      0.00000

 k-point     2 :       0.1667    0.0000    0.0000
  band No.  band energies     occupation 
      1      -7.0755      2.00000
      2       5.4673      2.00000
      3       7.5136      2.00000
      4       7.5138      2.00000
      5      14.2218      0.00000
      6      15.6948      0.00000
      7      15.6949      0.00000
      8      16.2388      0.00000
      9      20.8304      0.00000
     10      20.8304      0.00000
     11      23.5391      0.00000
     12      26.9057      0.00000
     13      28.4632      0.00000
     14      28.4632      0.00000
     15      34.0832      0.00000
     16      39.7767      0.00000
     17      40.1109      0.00000
     18      40.1110      0.00000
     19      46.0649      0.00000
     20      46.0649      0.00000
     21      50.5415      0.00000
     22      50.7361      0.00000
     23      50.7362      0.00000
     24      55.9087      0.00000
     25      61.0631      0.00000
     26      61.0633      0.00000
     27      62.6441      0.00000
     28      64.5381      0.00000
     29      64.5382      0.00000
     30      67.9537      0.00000
     31      67.9538      0.00000
     32      68.1809      0.00000
     33      69.0225      0.00000
     34      69.0225      0.00000
     35      71.4285      0.00000
     36      73.5591      0.00000
     37      73.9916      0.00000
     38      73.9917      0.00000
     39      75.7916      0.00000
     40      77.8587      0.00000
     41      78.5859      0.00000
     42      78.5859      0.00000
     43      80.9536      0.00000
     44      81.2093      0.00000
     45      81.2093      0.00000
     46      84.5246      0.00000
     47      84.5246      0.00000
     48      85.8469      0.00000
     49      86.8703      0.00000
     50      86.8703      0.00000
     51      87.8461      0.00000
     52      89.1039      0.00000
     53      92.4303      0.00000
     54      92.4303      0.00000
     55      94.2156      0.00000
     56      94.6416      0.00000
     57      94.6416      0.00000
     58     101.5076      0.00000
     59     106.2783      0.00000
     60     106.2784      0.00000
     61     106.8061      0.00000
     62     111.0674      0.00000
     63     112.4259      0.00000
     64     112.4266      0.00000

 k-point     3 :       0.3333   -0.0000   -0.0000
  band No.  band energies     occupation 
      1      -5.5420      2.00000
      2       1.6412      2.00000
      3       6.9964      2.00000
      4       6.9966      2.00000
      5      13.5624      0.00000
      6      15.5025      0.00000
      7      15.5025      0.00000
      8      17.7931      0.00000
      9      22.1472      0.00000
     10      22.1473      0.00000
     11      23.1467      0.00000
     12      30.6072      0.00000
     13      31.1303      0.00000
     14      31.1304      0.00000
     15      36.0634      0.00000
     16      37.7566      0.00000
     17      37.7566      0.00000
     18      41.4572      0.00000
     19      44.6326      0.00000
     20      44.6327      0.00000
     21      48.0505      0.00000
     22      51.3948      0.00000
     23      51.3949      0.00000
     24      55.6183      0.00000
     25      55.6183      0.00000
     26      57.3463      0.00000
     27      59.6377      0.00000
     28      62.7935      0.00000
     29      63.0122      0.00000
     30      63.0123      0.00000
     31      64.4969      0.00000
     32      64.4970      0.00000
     33      68.2179      0.00000
     34      69.3767      0.00000
     35      72.5379      0.00000
     36      72.5379      0.00000
     37      73.9377      0.00000
     38      74.8873      0.00000
     39      74.8874      0.00000
     40      76.9385      0.00000
     41      77.9845      0.00000
     42      77.9846      0.00000
     43      81.2268      0.00000
     44      85.2846      0.00000
     45      85.2847      0.00000
     46      88.0037      0.00000
     47      88.0039      0.00000
     48      88.1489      0.00000
     49      94.1309      0.00000
     50      94.1309      0.00000
     51      95.2726      0.00000
     52      97.6506      0.00000
     53      98.4608      0.00000
     54      98.4608      0.00000
     55      98.9104      0.00000
     56     101.1257      0.00000
     57     101.1259      0.00000
     58     101.8019      0.00000
     59     104.2281      0.00000
     60     104.2282      0.00000
     61     106.7408      0.00000
     62     106.7410      0.00000
     63     106.9834      0.00000
     64     109.7552      0.00000

 k-point     4 :       0.5000   -0.0000    0.0000
  band No.  band energies     occupation 
      1      -4.0310      2.00000
      2      -0.7331      2.00000
      3       6.7888      2.00000
      4       6.7890      2.00000
      5      13.3106      0.00000
      6      15.0808      0.00000
      7      15.0808      0.00000
      8      17.9203      0.00000
      9      24.0949      0.00000
     10      25.1044      0.00000
     11      25.1045      0.00000
     12      28.2270      0.00000
     13      28.2271      0.00000
     14      30.4766      0.00000
     15      40.3864      0.00000
     16      40.5852      0.00000
     17      40.8577      0.00000
     18      40.8577      0.00000
     19      43.9851      0.00000
     20      43.9852      0.00000
     21      49.6228      0.00000
     22      49.6229      0.00000
     23      49.8246      0.00000
     24      51.8125      0.00000
     25      52.8418      0.00000
     26      52.8420      0.00000
     27      58.4644      0.00000
     28      62.4181      0.00000
     29      62.4181      0.00000
     30      62.7967      0.00000
     31      62.7967      0.00000
     32      63.5347      0.00000
     33      65.7989      0.00000
     34      68.8129      0.00000
     35      72.7430      0.00000
     36      73.4138      0.00000
     37      73.4139      0.00000
     38      75.2264      0.00000
     39      75.2265      0.00000
     40      76.6600      0.00000
     41      82.1592      0.00000
     42      83.4100      0.00000
     43      83.4110      0.00000
     44      88.2163      0.00000
     45      88.2165      0.00000
     46      90.3934      0.00000
     47      90.3934      0.00000
     48      91.1276      0.00000
     49      92.4505      0.00000
     50      92.4507      0.00000
     51      93.1124      0.00000
     52      97.5531      0.00000
     53      97.5532      0.00000
     54     101.2507      0.00000
     55     101.2738      0.00000
     56     101.2739      0.00000
     57     103.7779      0.00000
     58     104.6317      0.00000
     59     104.6317      0.00000
     60     106.9023      0.00000
     61     106.9023      0.00000
     62     109.7141      0.00000
     63     110.2943      0.00000
     64     110.3513      0.00000

 k-point     5 :       0.1667    0.1667   -0.0000
  band No.  band energies     occupation 
      1      -6.8946      2.00000
      2       6.0485      2.00000
      3       6.7315      2.00000
      4       6.7316      2.00000
      5      13.4016      0.00000
      6      15.2256      0.00000
      7      16.9189      0.00000
      8      16.9189      0.00000
      9      18.7020      0.00000
     10      23.1770      0.00000
     11      26.5991      0.00000
     12      26.5991      0.00000
     13      26.9665      0.00000
     14      28.1665      0.00000
     15      35.2015      0.00000
     16      38.8668      0.00000
     17      38.8668      0.00000
     18      41.7371      0.00000
     19      43.9711      0.00000
     20      47.8590      0.00000
     21      47.8590      0.00000
     22      48.8651      0.00000
     23      52.7090      0.00000
     24      59.3578      0.00000
     25      59.3579      0.00000
     26      59.9998      0.00000
     27      62.4932      0.00000
     28      64.4412      0.00000
     29      64.4412      0.00000
     30      65.1649      0.00000
     31      66.8986      0.00000
     32      69.7607      0.00000
     33      70.0146      0.00000
     34      70.0147      0.00000
     35      70.2372      0.00000
     36      73.8930      0.00000
     37      73.8931      0.00000
     38      74.6530      0.00000
     39      75.0424      0.00000
     40      76.8188      0.00000
     41      76.8188      0.00000
     42      80.3093      0.00000
     43      81.0558      0.00000
     44      82.5058      0.00000
     45      82.5058      0.00000
     46      83.6944      0.00000
     47      84.1382      0.00000
     48      85.6625      0.00000
     49      86.1072      0.00000
     50      86.1072      0.00000
     51      86.4689      0.00000
     52      91.5173      0.00000
     53      92.8665      0.00000
     54      92.8665      0.00000
     55      96.3369      0.00000
     56      98.9926      0.00000
     57      99.7119      0.00000
     58      99.7119      0.00000
     59     100.6577      0.00000
     60     108.3079      0.00000
     61     110.2976      0.00000
     62     110.2977      0.00000
     63     112.3591      0.00000
     64     114.7130      0.00000

 k-point     6 :       0.3333    0.1667    0.0000
  band No.  band energies     occupation 
      1      -5.6818      2.00000
      2       3.0496      2.00000
      3       6.0408      2.00000
      4       6.0952      2.00000
      5      12.7640      0.00000
      6      15.4499      0.00000
      7      16.8661      0.00000
      8      17.5299      0.00000
      9      20.5304      0.00000
     10      23.9968      0.00000
     11      25.6849      0.00000
     12      29.6751      0.00000
     13      30.0690      0.00000
     14      32.5561      0.00000
     15      34.8578      0.00000
     16      35.3380      0.00000
     17      38.9533      0.00000
     18      42.1319      0.00000
     19      43.0815      0.00000
     20      45.0037      0.00000
     21      47.8834      0.00000
     22      48.9740      0.00000
     23      51.4192      0.00000
     24      55.5306      0.00000
     25      58.0904      0.00000
     26      58.1160      0.00000
     27      60.9823      0.00000
     28      62.3513      0.00000
     29      63.0320      0.00000
     30      64.0765      0.00000
     31      65.0669      0.00000
     32      66.2288      0.00000
     33      67.0147      0.00000
     34      70.9080      0.00000
     35      70.9858      0.00000
     36      72.6300      0.00000
     37      74.2473      0.00000
     38      74.7475      0.00000
     39      76.1474      0.00000
     40      76.4208      0.00000
     41      79.5941      0.00000
     42      79.6736      0.00000
     43      81.9266      0.00000
     44      82.1364      0.00000
     45      83.5602      0.00000
     46      83.6970      0.00000
     47      86.8017      0.00000
     48      89.3454      0.00000
     49      90.0978      0.00000
     50      91.9547      0.00000
     51      93.8498      0.00000
     52      95.7142      0.00000
     53      97.0679      0.00000
     54      97.6043      0.00000
     55     100.2028      0.00000
     56     102.0351      0.00000
     57     102.7925      0.00000
     58     105.3238      0.00000
     59     106.2177      0.00000
     60     106.5616      0.00000
     61     108.4375      0.00000
     62     108.9065      0.00000
     63     109.8479      0.00000
     64     110.6035      0.00000

 k-point     7 :       0.5000    0.1667   -0.0000
  band No.  band energies     occupation 
      1      -3.8892      2.00000
      2       0.0390      2.00000
      3       5.0604      2.00000
      4       6.0850      2.00000
      5      12.6859      0.00000
      6      15.7008      0.00000
      7      16.7232      0.00000
      8      18.5259      0.00000
      9      21.8368      0.00000
     10      25.1780      0.00000
     11      26.1025      0.00000
     12      29.0148      0.00000
     13      29.7082      0.00000
     14      33.3732      0.00000
     15      37.3474      0.00000
     16      38.4612      0.00000
     17      40.0373      0.00000
     18      42.3711      0.00000
     19      42.6967      0.00000
     20      44.0028      0.00000
     21      47.6298      0.00000
     22      48.7434      0.00000
     23      51.1022      0.00000
     24      52.5436      0.00000
     25      52.6461      0.00000
     26      55.9666      0.00000
     27      56.3641      0.00000
     28      57.6999      0.00000
     29      62.3755      0.00000
     30      62.6469      0.00000
     31      64.9172      0.00000
     32      65.8845      0.00000
     33      66.6782      0.00000
     34      70.1324      0.00000
     35      70.4162      0.00000
     36      72.9365      0.00000
     37      74.1850      0.00000
     38      75.0605      0.00000
     39      78.7920      0.00000
     40      79.3322      0.00000
     41      81.8208      0.00000
     42      82.9323      0.00000
     43      83.2854      0.00000
     44      85.0164      0.00000
     45      86.0727      0.00000
     46      88.1175      0.00000
     47      89.6615      0.00000
     48      90.8776      0.00000
     49      92.1650      0.00000
     50      94.5617      0.00000
     51      95.4350      0.00000
     52      96.2147      0.00000
     53      99.7082      0.00000
     54     100.2100      0.00000
     55     101.0477      0.00000
     56     102.8924      0.00000
     57     103.4327      0.00000
     58     103.7049      0.00000
     59     105.1735      0.00000
     60     105.7756      0.00000
     61     106.8341      0.00000
     62     108.2558      0.00000
     63     109.4767      0.00000
     64     111.3854      0.00000

 k-point     8 :      -0.3333    0.1667    0.0000
  band No.  band energies     occupation 
      1      -4.4664      2.00000
      2       0.8859      2.00000
      3       4.6292      2.00000
      4       6.6885      2.00000
      5      13.5459      0.00000
      6      15.6135      0.00000
      7      16.2499      0.00000
      8      18.5173      0.00000
      9      21.2625      0.00000
     10      23.3254      0.00000
     11      26.2676      0.00000
     12      28.9959      0.00000
     13      32.1251      0.00000
     14      32.6533      0.00000
     15      34.9393      0.00000
     16      38.4945      0.00000
     17      40.2877      0.00000
     18      41.2851      0.00000
     19      44.6189      0.00000
     20      45.1241      0.00000
     21      47.5631      0.00000
     22      47.9828      0.00000
     23      50.8432      0.00000
     24      51.2256      0.00000
     25      54.0148      0.00000
     26      56.3970      0.00000
     27      58.0861      0.00000
     28      60.3276      0.00000
     29      62.8201      0.00000
     30      63.0731      0.00000
     31      64.3184      0.00000
     32      65.4172      0.00000
     33      67.9154      0.00000
     34      69.8561      0.00000
     35      70.0557      0.00000
     36      72.2377      0.00000
     37      73.4814      0.00000
     38      74.5615      0.00000
     39      76.7966      0.00000
     40      78.3294      0.00000
     41      81.2549      0.00000
     42      82.1339      0.00000
     43      83.8409      0.00000
     44      85.6407      0.00000
     45      85.9989      0.00000
     46      89.6323      0.00000
     47      91.1594      0.00000
     48      91.5119      0.00000
     49      92.4177      0.00000
     50      93.6154      0.00000
     51      93.9522      0.00000
     52      95.4538      0.00000
     53      97.7446      0.00000
     54      99.2153      0.00000
     55      99.4972      0.00000
     56     100.5144      0.00000
     57     102.9140      0.00000
     58     103.9268      0.00000
     59     104.9596      0.00000
     60     105.2361      0.00000
     61     108.1610      0.00000
     62     109.9811      0.00000
     63     110.0851      0.00000
     64     110.9889      0.00000

 k-point     9 :      -0.1667    0.1667    0.0000
  band No.  band energies     occupation 
      1      -6.1965      2.00000
      2       3.9246      2.00000
      3       5.3989      2.00000
      4       7.4670      2.00000
      5      14.8982      0.00000
      6      15.4683      0.00000
      7      15.9388      0.00000
      8      16.8151      0.00000
      9      19.2343      0.00000
     10      22.4782      0.00000
     11      26.5047      0.00000
     12      26.7771      0.00000
     13      30.1816      0.00000
     14      32.3579      0.00000
     15      33.9028      0.00000
     16      37.8451      0.00000
     17      40.0437      0.00000
     18      41.1138      0.00000
     19      43.5211      0.00000
     20      43.9786      0.00000
     21      48.9884      0.00000
     22      50.2609      0.00000
     23      50.7284      0.00000
     24      57.3502      0.00000
     25      59.3501      0.00000
     26      60.2061      0.00000
     27      61.1388      0.00000
     28      62.1043      0.00000
     29      64.1307      0.00000
     30      64.5647      0.00000
     31      66.1970      0.00000
     32      67.3769      0.00000
     33      67.9350      0.00000
     34      68.6484      0.00000
     35      70.2402      0.00000
     36      71.3915      0.00000
     37      72.4409      0.00000
     38      73.9217      0.00000
     39      76.0121      0.00000
     40      76.4238      0.00000
     41      79.3177      0.00000
     42      79.5385      0.00000
     43      81.9281      0.00000
     44      83.3864      0.00000
     45      83.9343      0.00000
     46      85.1276      0.00000
     47      86.7380      0.00000
     48      87.7030      0.00000
     49      89.9326      0.00000
     50      90.7510      0.00000
     51      92.6751      0.00000
     52      93.6404      0.00000
     53      94.8237      0.00000
     54      97.5175      0.00000
     55      98.1515      0.00000
     56      99.8607      0.00000
     57     100.7058      0.00000
     58     101.9603      0.00000
     59     102.2174      0.00000
     60     106.6484      0.00000
     61     106.9072      0.00000
     62     110.9097      0.00000
     63     111.2476      0.00000
     64     111.8858      0.00000

 k-point    10 :       0.3333    0.3333   -0.0000
  band No.  band energies     occupation 
      1      -4.8303      2.00000
      2       2.7750      2.00000
      3       5.2255      2.00000
      4       5.2256      2.00000
      5      10.4735      0.00000
      6      13.0636      0.00000
      7      20.0365      0.00000
      8      20.0365      0.00000
      9      20.9284      0.00000
     10      25.5243      0.00000
     11      30.2691      0.00000
     12      30.2691      0.00000
     13      30.2722      0.00000
     14      32.5105      0.00000
     15      34.4927      0.00000
     16      34.4927      0.00000
     17      36.7749      0.00000
     18      37.5134      0.00000
     19      45.8843      0.00000
     20      45.8843      0.00000
     21      46.4894      0.00000
     22      49.0210      0.00000
     23      51.1008      0.00000
     24      52.3012      0.00000
     25      54.4302      0.00000
     26      54.4303      0.00000
     27      61.4363      0.00000
     28      63.5872      0.00000
     29      63.9443      0.00000
     30      63.9443      0.00000
     31      64.9985      0.00000
     32      69.6983      0.00000
     33      71.2738      0.00000
     34      71.2738      0.00000
     35      71.5870      0.00000
     36      72.1623      0.00000
     37      72.9598      0.00000
     38      72.9598      0.00000
     39      76.2070      0.00000
     40      76.2070      0.00000
     41      76.3334      0.00000
     42      78.0976      0.00000
     43      78.1534      0.00000
     44      84.7575      0.00000
     45      85.4238      0.00000
     46      85.4239      0.00000
     47      89.0172      0.00000
     48      91.0172      0.00000
     49      92.4532      0.00000
     50      92.4532      0.00000
     51      93.6433      0.00000
     52      96.5063      0.00000
     53      99.4464      0.00000
     54      99.4464      0.00000
     55      99.8358      0.00000
     56     102.6319      0.00000
     57     105.7675      0.00000
     58     105.7675      0.00000
     59     106.8735      0.00000
     60     108.6304      0.00000
     61     110.4480      0.00000
     62     110.4480      0.00000
     63     112.7925      0.00000
     64     113.6223      0.00000

 k-point    11 :       0.5000    0.3333    0.0000
  band No.  band energies     occupation 
      1      -3.2674      2.00000
      2       0.9749      2.00000
      3       3.4771      2.00000
      4       5.0556      2.00000
      5      10.5634      0.00000
      6      14.0727      0.00000
      7      19.9969      0.00000
      8      20.0974      0.00000
      9      22.1286      0.00000
     10      25.9435      0.00000
     11      29.4823      0.00000
     12      30.4560      0.00000
     13      31.7397      0.00000
     14      33.2043      0.00000
     15      35.6241      0.00000
     16      37.2860      0.00000
     17      37.4205      0.00000
     18      39.2056      0.00000
     19      41.9111      0.00000
     20      44.5079      0.00000
     21      44.9743      0.00000
     22      47.7785      0.00000
     23      49.6164      0.00000
     24      52.5193      0.00000
     25      52.5877      0.00000
     26      55.2475      0.00000
     27      59.7101      0.00000
     28      61.5837      0.00000
     29      62.2966      0.00000
     30      63.3496      0.00000
     31      63.9089      0.00000
     32      66.8240      0.00000
     33      66.8931      0.00000
     34      69.1307      0.00000
     35      70.8202      0.00000
     36      73.4454      0.00000
     37      73.7929      0.00000
     38      76.6170      0.00000
     39      77.4514      0.00000
     40      78.7866      0.00000
     41      79.7681      0.00000
     42      80.7646      0.00000
     43      84.2891      0.00000
     44      84.8482      0.00000
     45      87.3351      0.00000
     46      87.5730      0.00000
     47      89.6856      0.00000
     48      91.2659      0.00000
     49      92.2634      0.00000
     50      95.1136      0.00000
     51      95.4723      0.00000
     52      98.2636      0.00000
     53      99.6448      0.00000
     54     100.4641      0.00000
     55     100.5344      0.00000
     56     102.1945      0.00000
     57     102.4661      0.00000
     58     103.7392      0.00000
     59     105.0566      0.00000
     60     107.7963      0.00000
     61     109.5787      0.00000
     62     110.7524      0.00000
     63     111.1794      0.00000
     64     112.1510      0.00000

 k-point    12 :      -0.3333    0.3333   -0.0000
  band No.  band energies     occupation 
      1      -2.9612      2.00000
      2       0.7830      2.00000
      3       2.1770      2.00000
      4       5.6599      2.00000
      5      11.6654      0.00000
      6      17.0475      0.00000
      7      18.6509      0.00000
      8      19.4391      0.00000
      9      20.7955      0.00000
     10      22.3834      0.00000
     11      29.6610      0.00000
     12      30.3121      0.00000
     13      33.1555      0.00000
     14      33.8162      0.00000
     15      36.1198      0.00000
     16      37.2281      0.00000
     17      38.5409      0.00000
     18      40.6186      0.00000
     19      42.2863      0.00000
     20      45.8769      0.00000
     21      46.2350      0.00000
     22      48.0740      0.00000
     23      50.4179      0.00000
     24      51.0044      0.00000
     25      52.4134      0.00000
     26      53.8942      0.00000
     27      54.1673      0.00000
     28      59.3434      0.00000
     29      63.7347      0.00000
     30      64.1540      0.00000
     31      65.1172      0.00000
     32      65.5920      0.00000
     33      66.1572      0.00000
     34      66.7333      0.00000
     35      70.5363      0.00000
     36      74.3062      0.00000
     37      74.3824      0.00000
     38      77.0507      0.00000
     39      78.1111      0.00000
     40      79.5265      0.00000
     41      82.5926      0.00000
     42      84.1426      0.00000
     43      84.3162      0.00000
     44      87.5996      0.00000
     45      88.4987      0.00000
     46      89.3327      0.00000
     47      90.3446      0.00000
     48      91.5973      0.00000
     49      91.9027      0.00000
     50      94.2480      0.00000
     51      94.3046      0.00000
     52      94.8108      0.00000
     53      98.7564      0.00000
     54      99.6776      0.00000
     55      99.9075      0.00000
     56     100.6223      0.00000
     57     100.6434      0.00000
     58     103.0973      0.00000
     59     105.0949      0.00000
     60     105.7248      0.00000
     61     106.9811      0.00000
     62     109.7950      0.00000
     63     110.1541      0.00000
     64     111.4335      0.00000

 k-point    13 :       0.5000    0.5000   -0.0000
  band No.  band energies     occupation 
      1      -2.5750      2.00000
      2       0.0220      2.00000
      3       4.6434      2.00000
      4       4.6435      2.00000
      5       9.1828      0.00000
      6      12.1717      0.00000
      7      21.9259      0.00000
      8      21.9260      0.00000
      9      22.6948      0.00000
     10      27.9563      0.00000
     11      30.0563      0.00000
     12      30.0563      0.00000
     13      30.6222      0.00000
     14      32.6961      0.00000
     15      36.5935      0.00000
     16      36.5935      0.00000
     17      37.5807      0.00000
     18      39.7136      0.00000
     19      41.8954      0.00000
     20      41.8954      0.00000
     21      42.3861      0.00000
     22      44.9051      0.00000
     23      51.5317      0.00000
     24      52.0090      0.00000
     25      52.0091      0.00000
     26      56.6487      0.00000
     27      62.3071      0.00000
     28      63.5392      0.00000
     29      63.5392      0.00000
     30      64.6826      0.00000
     31      64.8543      0.00000
     32      65.4255      0.00000
     33      69.5225      0.00000
     34      70.5596      0.00000
     35      70.5597      0.00000
     36      70.8488      0.00000
     37      72.2946      0.00000
     38      72.6464      0.00000
     39      72.6464      0.00000
     40      75.3613      0.00000
     41      81.2048      0.00000
     42      81.2050      0.00000
     43      83.1816      0.00000
     44      89.0964      0.00000
     45      89.5742      0.00000
     46      89.5742      0.00000
     47      90.5581      0.00000
     48      91.6856      0.00000
     49      91.6857      0.00000
     50      97.5806      0.00000
     51      97.7037      0.00000
     52     100.4813      0.00000
     53     100.6537      0.00000
     54     101.4452      0.00000
     55     101.5714      0.00000
     56     101.5714      0.00000
     57     103.3602      0.00000
     58     103.3808      0.00000
     59     103.3808      0.00000
     60     104.3495      0.00000
     61     104.6374      0.00000
     62     105.3993      0.00000
     63     105.3993      0.00000
     64     111.9520      0.00000

 k-point    14 :       0.5000    0.3333    0.1667
  band No.  band energies     occupation 
      1      -4.2526      2.00000
      2       1.8711      2.00000
      3       3.7229      2.00000
      4       5.4123      2.00000
      5      12.7415      0.00000
      6      15.6164      0.00000
      7      16.4582      0.00000
      8      19.5580      0.00000
      9      21.2069      0.00000
     10      24.6698      0.00000
     11      28.4967      0.00000
     12      29.4372      0.00000
     13      31.6059      0.00000
     14      33.2844      0.00000
     15      34.4494      0.00000
     16      36.8472      0.00000
     17      39.2775      0.00000
     18      41.5342      0.00000
     19      43.2588      0.00000
     20      44.1073      0.00000
     21      45.8418      0.00000
     22      49.3184      0.00000
     23      50.7598      0.00000
     24      51.8018      0.00000
     25      53.9474      0.00000
     26      56.7658      0.00000
     27      58.2172      0.00000
     28      59.6880      0.00000
     29      62.7820      0.00000
     30      62.8756      0.00000
     31      63.8546      0.00000
     32      65.4068      0.00000
     33      68.4262      0.00000
     34      70.1565      0.00000
     35      71.9368      0.00000
     36      73.0835      0.00000
     37      74.0307      0.00000
     38      76.6013      0.00000
     39      77.6599      0.00000
     40      78.8101      0.00000
     41      79.0457      0.00000
     42      80.9195      0.00000
     43      83.0150      0.00000
     44      84.1508      0.00000
     45      85.7575      0.00000
     46      87.1646      0.00000
     47      88.7634      0.00000
     48      91.0352      0.00000
     49      93.1103      0.00000
     50      93.9907      0.00000
     51      95.2109      0.00000
     52      96.9798      0.00000
     53      97.7603      0.00000
     54      99.5031      0.00000
     55      99.9061      0.00000
     56     100.9985      0.00000
     57     104.2579      0.00000
     58     104.7977      0.00000
     59     105.9095      0.00000
     60     106.6073      0.00000
     61     108.3714      0.00000
     62     110.2145      0.00000
     63     111.8731      0.00000
     64     112.3131      0.00000

 k-point    15 :      -0.3333    0.3333    0.1667
  band No.  band energies     occupation 
      1      -2.9438      2.00000
      2       0.4427      2.00000
      3       3.1084      2.00000
      4       4.7060      2.00000
      5      12.9667      0.00000
      6      15.7618      0.00000
      7      18.2006      0.00000
      8      19.1569      0.00000
      9      20.8021      0.00000
     10      24.3433      0.00000
     11      29.0671      0.00000
     12      29.6237      0.00000
     13      32.5767      0.00000
     14      34.8154      0.00000
     15      35.7824      0.00000
     16      37.5632      0.00000
     17      38.8991      0.00000
     18      40.7875      0.00000
     19      42.3001      0.00000
     20      43.5896      0.00000
     21      47.0413      0.00000
     22      49.2327      0.00000
     23      49.8277      0.00000
     24      50.5100      0.00000
     25      53.2359      0.00000
     26      55.5530      0.00000
     27      56.7706      0.00000
     28      57.7524      0.00000
     29      58.6554      0.00000
     30      61.4669      0.00000
     31      63.7567      0.00000
     32      67.2523      0.00000
     33      69.0146      0.00000
     34      70.4428      0.00000
     35      71.4847      0.00000
     36      73.4928      0.00000
     37      75.6394      0.00000
     38      76.5633      0.00000
     39      77.3009      0.00000
     40      79.4992      0.00000
     41      81.4060      0.00000
     42      82.7512      0.00000
     43      83.4098      0.00000
     44      86.0582      0.00000
     45      89.0293      0.00000
     46      90.4019      0.00000
     47      91.0626      0.00000
     48      91.8503      0.00000
     49      92.2982      0.00000
     50      94.0607      0.00000
     51      94.8325      0.00000
     52      97.0460      0.00000
     53      97.4715      0.00000
     54      97.7368      0.00000
     55      99.2773      0.00000
     56     101.2394      0.00000
     57     102.3780      0.00000
     58     103.3397      0.00000
     59     104.9013      0.00000
     60     106.3421      0.00000
     61     107.6287      0.00000
     62     108.5928      0.00000
     63     110.7566      0.00000
     64     112.0796      0.00000

 k-point    16 :      -0.3333    0.5000    0.1667
  band No.  band energies     occupation 
      1      -2.4041      2.00000
      2       0.5370      2.00000
      3       3.3115      2.00000
      4       3.4357      2.00000
      5      11.8338      0.00000
      6      14.9561      0.00000
      7      18.7119      0.00000
      8      20.0983      0.00000
      9      22.0750      0.00000
     10      25.5891      0.00000
     11      29.0627      0.00000
     12      32.0237      0.00000
     13      32.8902      0.00000
     14      35.0384      0.00000
     15      35.7400      0.00000
     16      36.1760      0.00000
     17      37.7756      0.00000
     18      38.2444      0.00000
     19      42.0464      0.00000
     20      44.4595      0.00000
     21      45.5930      0.00000
     22      47.9616      0.00000
     23      49.0804      0.00000
     24      49.4069      0.00000
     25      53.1391      0.00000
     26      56.6941      0.00000
     27      58.3858      0.00000
     28      58.5300      0.00000
     29      60.6248      0.00000
     30      63.7919      0.00000
     31      64.2848      0.00000
     32      65.9279      0.00000
     33      66.8667      0.00000
     34      68.0542      0.00000
     35      71.3631      0.00000
     36      73.2452      0.00000
     37      75.9683      0.00000
     38      77.1339      0.00000
     39      79.0850      0.00000
     40      79.3395      0.00000
     41      80.6680      0.00000
     42      83.0381      0.00000
     43      84.6435      0.00000
     44      86.9927      0.00000
     45      88.3016      0.00000
     46      89.3027      0.00000
     47      90.0475      0.00000
     48      90.9192      0.00000
     49      90.9373      0.00000
     50      92.8178      0.00000
     51      94.9094      0.00000
     52      99.1357      0.00000
     53      99.8269      0.00000
     54      99.9613      0.00000
     55     100.6457      0.00000
     56     101.1144      0.00000
     57     102.9636      0.00000
     58     103.0723      0.00000
     59     105.0594      0.00000
     60     105.9329      0.00000
     61     108.5703      0.00000
     62     109.8501      0.00000
     63     110.4654      0.00000
     64     110.9587      0.00000


--------------------------------------------------------------------------------------------------------


 soft charge-density along one line, spin component           1
         0         1         2         3         4         5         6         7         8         9
x     8.1684    0.0000    0.7174   -2.0166   -0.1445   -0.2378   -0.0257   -0.0776   -0.0364    0.0032
x     0.0009    0.0087    0.0017   -0.0001   -0.0000   -0.0002    0.0000    0.0000
y     8.1684    0.0000    0.7174   -2.0166   -0.1445   -0.2378   -0.0257   -0.0776   -0.0364    0.0032
y     0.0009    0.0087    0.0017   -0.0001   -0.0000   -0.0002    0.0000    0.0000
z     8.1684    0.0000    0.7174   -2.0166   -0.1445   -0.2378   -0.0257   -0.0776   -0.0364    0.0032
z     0.0009    0.0087    0.0017   -0.0001   -0.0000   -0.0002    0.0000    0.0000
 total charge-density along one line
x     8.0000    0.0000    0.5561   -2.0637   -0.2327   -0.2335   -0.0302   -0.0566   -0.0304    0.0047
x     0.0007    0.0080    0.0020   -0.0001   -0.0000   -0.0002    0.0001   -0.0000   -0.0000    0.0000
x     0.0000   -0.0000    0.0000    0.0000    0.0000   -0.0000    0.0000    0.0000    0.0000   -0.0000
x     0.0000    0.0000    0.0000    0.0000
y     8.0000    0.0000    0.5561   -2.0637   -0.2327   -0.2335   -0.0302   -0.0566   -0.0304    0.0047
y     0.0007    0.0080    0.0020   -0.0001   -0.0000   -0.0002    0.0001   -0.0000   -0.0000    0.0000
y     0.0000   -0.0000    0.0000    0.0000    0.0000   -0.0000    0.0000    0.0000    0.0000   -0.0000
y     0.0000    0.0000    0.0000    0.0000
z     8.0000    0.0000    0.5561   -2.0637   -0.2327   -0.2335   -0.0302   -0.0566   -0.0304    0.0047
z     0.0007    0.0080    0.0020   -0.0001   -0.0000   -0.0002    0.0001   -0.0000   -0.0000    0.0000
z     0.0000   -0.0000    0.0000    0.0000    0.0000   -0.0000    0.0000    0.0000    0.0000   -0.0000
z     0.0000    0.0000    0.0000    0.0000
 
 pseudopotential strength for first ion, spin component:           1
 16.714 -18.125  -0.000  -0.000  -0.000   0.000   0.000   0.000
-18.125  51.279   0.000   0.000   0.000  -0.000  -0.000  -0.000
 -0.000   0.000   3.801   0.000   0.000 -11.076  -0.000  -0.000
 -0.000   0.000   0.000   3.801   0.000  -0.000 -11.076  -0.000
 -0.000   0.000   0.000   0.000   3.801  -0.000  -0.000 -11.076
  0.000  -0.000 -11.076  -0.000  -0.000  35.211   0.000   0.000
  0.000  -0.000  -0.000 -11.076  -0.000   0.000  35.211   0.000
  0.000  -0.000  -0.000  -0.000 -11.076   0.000   0.000  35.211
  0.000   0.000  -0.000   0.003  -0.000   0.000  -0.007   0.000
  0.000   0.000  -0.000  -0.000   0.003   0.000   0.000  -0.007
  0.000   0.000   0.000  -0.000   0.000  -0.000   0.000  -0.000
  0.000   0.000   0.003  -0.000  -0.000  -0.007   0.000   0.000
  0.000   0.000   0.000   0.000  -0.000  -0.000  -0.000   0.000
 -0.000   0.000   0.000  -0.014   0.000  -0.000   0.035  -0.000
 -0.000   0.000   0.000   0.000  -0.014  -0.000  -0.000   0.035
 -0.000   0.000  -0.000   0.000  -0.000   0.000  -0.000   0.000
 -0.000   0.000  -0.014   0.000   0.000   0.035  -0.000  -0.000
 -0.000   0.000  -0.000  -0.000   0.000   0.000   0.000  -0.000
 total augmentation occupancy for first ion, spin component:           1
  1.460   0.023   0.000   0.000  -0.000   0.000   0.000   0.000  -0.000   0.000  -0.000  -0.000   0.000   0.000  -0.000   0.000
  0.023   0.001  -0.000   0.000   0.000   0.000   0.000   0.000  -0.000  -0.000   0.000  -0.000   0.000  -0.000  -0.000   0.000
  0.000   0.000   1.236   0.000  -0.000   0.036   0.000  -0.000   0.000  -0.000  -0.000   0.221   0.000   0.000  -0.000  -0.000
  0.000   0.000   0.000   1.236   0.000   0.000   0.036   0.000   0.221   0.000   0.000  -0.000  -0.000   0.002  -0.000   0.000
 -0.000  -0.000  -0.000   0.000   1.236  -0.000   0.000   0.036   0.000   0.221  -0.000  -0.000  -0.000   0.000   0.002   0.000
 -0.000   0.000   0.036   0.000  -0.000   0.001  -0.000  -0.000   0.000  -0.000  -0.000   0.006   0.000   0.000   0.000  -0.000
 -0.000   0.000   0.000   0.036   0.000   0.000   0.001   0.000   0.006   0.000   0.000  -0.000  -0.000   0.000   0.000   0.000
 -0.000   0.000  -0.000   0.000   0.036   0.000   0.000   0.001   0.000   0.006  -0.000  -0.000  -0.000   0.000   0.000  -0.000
 -0.000  -0.000   0.000   0.221   0.000   0.000   0.006   0.000   0.087   0.000   0.000   0.000  -0.000   0.000   0.000   0.000
 -0.000  -0.000  -0.000   0.000   0.221  -0.000   0.000   0.006   0.000   0.087  -0.000  -0.000  -0.000   0.000   0.000  -0.000
 -0.000   0.000  -0.000   0.000  -0.000  -0.000   0.000  -0.000   0.000  -0.000   0.032  -0.000   0.000   0.000  -0.000   0.000
 -0.000   0.000   0.221  -0.000  -0.000   0.006  -0.000  -0.000   0.000  -0.000   0.000   0.087   0.000   0.000   0.000   0.000
  0.000   0.000   0.000  -0.000  -0.000   0.000  -0.000  -0.000  -0.000  -0.000   0.000   0.000   0.032  -0.000  -0.000   0.000
  0.000  -0.000   0.000   0.002   0.000   0.000   0.000   0.000   0.000   0.000   0.000   0.000  -0.000   0.000   0.000   0.000
 -0.000   0.000   0.000   0.000   0.002  -0.000   0.000   0.000  -0.000   0.000  -0.000   0.000  -0.000   0.000   0.000  -0.000
 -0.000   0.000  -0.000   0.000  -0.000  -0.000   0.000  -0.000   0.000  -0.000   0.000  -0.000  -0.000   0.000  -0.000   0.000
  0.000  -0.000   0.002   0.000   0.000   0.000  -0.000  -0.000   0.000   0.000   0.000   0.000   0.000   0.000   0.000  -0.000
  0.000   0.000   0.000  -0.000  -0.000   0.000  -0.000  -0.000  -0.000  -0.000   0.000   0.000   0.000  -0.000  -0.000   0.000


------------------------ aborting loop because EDIFF is reached ----------------------------------------


    CHARGE:  cpu time    0.0070: real time    0.0070
    FORLOC:  cpu time    0.0010: real time    0.0012
    FORNL :  cpu time    0.0610: real time    0.0617
    STRESS:  cpu time    0.1270: real time    0.1271
    FORCOR:  cpu time    0.0130: real time    0.0129
    FORHAR:  cpu time    0.0030: real time    0.0033
    MIXING:  cpu time    0.0010: real time    0.0005

  FORCE on cell =-STRESS in cart. coord.  units (eV):
  Direction    XX          YY          ZZ          XY          YZ          ZX
  --------------------------------------------------------------------------------------
  Alpha Z    13.84060    13.84060    13.84060
  Ewald     -95.10349   -95.10349   -95.10349    -0.00000     0.00000    -0.00000
  Hartree    10.58175    10.58175    10.58175    -0.00000    -0.00000    -0.00000
  E(xc)     -28.17230   -28.17230   -28.17230    -0.00000    -0.00000    -0.00000
  Local     -20.82642   -20.82642   -20.82641     0.00007     0.00007     0.00007
  n-local    30.34086    26.64981    29.44000    -0.05816    -0.01117     0.15178
  augment    -5.36843    -5.36843    -5.36843    -0.00001    -0.00001    -0.00001
  Kinetic    94.97399    95.96787    98.69733    -1.56375     1.43334     4.47456
  Fock        0.00000     0.00000     0.00000     0.00000     0.00000     0.00000
  -------------------------------------------------------------------------------------
  Total       0.30834     0.30834     0.30834    -0.00000    -0.00000    -0.00000
  in kB      24.00684    24.00684    24.00684    -0.00000    -0.00000    -0.00000
  external pressure =       24.01 kB  Pullay stress =        0.00 kB


 VOLUME and BASIS-vectors are now :
 -----------------------------------------------------------------------------
  energy-cutoff  :      413.99
  volume of cell :       20.58
      direct lattice vectors                 reciprocal lattice vectors
     2.175000000  2.175000000  0.000000000     0.229885057  0.229885057 -0.229885057
     0.000000000  2.175000000  2.175000000    -0.229885057  0.229885057  0.229885057
     2.175000000  0.000000000  2.175000000     0.229885057 -0.229885057  0.229885057

  length of vectors
     3.075914498  3.075914498  3.075914498     0.398172599  0.398172599  0.398172599


 FORCES acting on ions
    electron-ion (+dipol)            ewald-force                    non-local-force                 convergence-correction
 -----------------------------------------------------------------------------------------------
   -.906E-07 -.906E-07 -.472E-06   0.559E-15 0.948E-15 0.667E-16   -.133E-17 -.126E-15 -.291E-16   0.557E-12 0.557E-12 0.557E-12
   -.161E-06 -.161E-06 -.115E-06   0.168E-15 -.440E-15 -.215E-15   -.754E-16 -.125E-15 -.892E-16   -.807E-11 -.807E-11 -.807E-11
 -----------------------------------------------------------------------------------------------
   -.252E-06 -.252E-06 -.587E-06   0.727E-15 0.509E-15 -.148E-15   -.767E-16 -.252E-15 -.118E-15   -.751E-11 -.751E-11 -.751E-11
 
 
[...]
   66.074807    0.879714    0.879714    0.879714    0.000000    0.000000   -0.000000
   66.441890    0.887427    0.887427    0.887427    0.000000    0.000000   -0.000000
   66.808972    0.866732    0.866732    0.866732    0.000000    0.000000   -0.000000
   67.176054    0.876659    0.876659    0.876659    0.000000    0.000000   -0.000000
   67.543136    0.884526    0.884526    0.884526    0.000000    0.000000   -0.000000
   67.910219    0.887270    0.887270    0.887270    0.000000    0.000000   -0.000000
   68.277301    0.884896    0.884896    0.884896    0.000000    0.000000   -0.000000
   68.644383    0.881422    0.881422    0.881422    0.000000    0.000000   -0.000000
   69.011465    0.886850    0.886850    0.886850    0.000000    0.000000   -0.000000
   69.378548    0.885988    0.885988    0.885988    0.000000    0.000000   -0.000000
   69.745630    0.901025    0.901025    0.901025    0.000000    0.000000   -0.000000
   70.112712    0.885582    0.885582    0.885582    0.000000    0.000000   -0.000000
   70.479794    0.875782    0.875782    0.875782    0.000000    0.000000   -0.000000
   70.846877    0.884506    0.884506    0.884506    0.000000    0.000000   -0.000000
   71.213959    0.884874    0.884874    0.884874    0.000000    0.000000   -0.000000
   71.581041    0.893432    0.893432    0.893432    0.000000    0.000000   -0.000000
   71.948123    0.896888    0.896888    0.896888    0.000000    0.000000   -0.000000
   72.315206    0.893612    0.893612    0.893612    0.000000    0.000000   -0.000000
   72.682288    0.890691    0.890691    0.890691    0.000000    0.000000   -0.000000
   73.049370    0.894479    0.894479    0.894479    0.000000    0.000000   -0.000000
   73.416453    0.903321    0.903321    0.903321    0.000000    0.000000   -0.000000
   73.783535    0.890308    0.890308    0.890308    0.000000    0.000000   -0.000000
   74.150617    0.891562    0.891562    0.891562    0.000000    0.000000   -0.000000
   74.517699    0.892975    0.892975    0.892975    0.000000    0.000000   -0.000000
   74.884782    0.900596    0.900596    0.900596    0.000000    0.000000   -0.000000
   75.251864    0.907154    0.907154    0.907154    0.000000    0.000000   -0.000000
   75.618946    0.907701    0.907701    0.907701    0.000000    0.000000   -0.000000
   75.986028    0.901534    0.901534    0.901534    0.000000    0.000000   -0.000000
   76.353111    0.907781    0.907781    0.907781    0.000000    0.000000   -0.000000
   76.720193    0.906486    0.906486    0.906486    0.000000    0.000000   -0.000000
   77.087275    0.900340    0.900340    0.900340    0.000000    0.000000   -0.000000
   77.454357    0.896735    0.896735    0.896735    0.000000    0.000000   -0.000000
   77.821440    0.903307    0.903307    0.903307    0.000000    0.000000   -0.000000
   78.188522    0.910986    0.910986    0.910986    0.000000    0.000000   -0.000000
   78.555604    0.908335    0.908335    0.908335    0.000000    0.000000   -0.000000
   78.922686    0.910932    0.910932    0.910932    0.000000    0.000000   -0.000000
   79.289769    0.904886    0.904886    0.904886    0.000000    0.000000   -0.000000
   79.656851    0.906815    0.906815    0.906815    0.000000    0.000000   -0.000000
   80.023933    0.909283    0.909283    0.909283    0.000000    0.000000   -0.000000
   80.391016    0.912140    0.912140    0.912140    0.000000    0.000000   -0.000000
   80.758098    0.912706    0.912706    0.912706    0.000000    0.000000   -0.000000
   81.125180    0.913667    0.913667    0.913667    0.000000    0.000000   -0.000000
   81.492262    0.911066    0.911066    0.911066    0.000000    0.000000   -0.000000
   81.859345    0.916356    0.916356    0.916356    0.000000    0.000000   -0.000000
   82.226427    0.920328    0.920328    0.920328    0.000000    0.000000   -0.000000
   82.593509    0.920136    0.920136    0.920136    0.000000    0.000000   -0.000000
   82.960591    0.918153    0.918153    0.918153    0.000000    0.000000   -0.000000
   83.327674    0.915745    0.915745    0.915745    0.000000    0.000000   -0.000000
   83.694756    0.920250    0.920250    0.920250    0.000000    0.000000   -0.000000
   84.061838    0.917429    0.917429    0.917429    0.000000    0.000000   -0.000000
   84.428920    0.922921    0.922921    0.922921    0.000000    0.000000   -0.000000
   84.796003    0.921854    0.921854    0.921854    0.000000    0.000000   -0.000000
   85.163085    0.922125    0.922125    0.922125    0.000000    0.000000   -0.000000
   85.530167    0.925206    0.925206    0.925206    0.000000    0.000000   -0.000000
   85.897249    0.921660    0.921660    0.921660    0.000000    0.000000   -0.000000
   86.264332    0.924505    0.924505    0.924505    0.000000    0.000000   -0.000000
   86.631414    0.922616    0.922616    0.922616    0.000000    0.000000   -0.000000
   86.998496    0.926007    0.926007    0.926007    0.000000    0.000000   -0.000000
   87.365579    0.920428    0.920428    0.920428    0.000000    0.000000   -0.000000
   87.732661    0.924591    0.924591    0.924591    0.000000    0.000000   -0.000000
   88.099743    0.926532    0.926532    0.926532    0.000000    0.000000   -0.000000
   88.466825    0.927404    0.927404    0.927404    0.000000    0.000000   -0.000000
   88.833908    0.929232    0.929232    0.929232    0.000000    0.000000   -0.000000
   89.200990    0.933065    0.933065    0.933065    0.000000    0.000000   -0.000000
   89.568072    0.927964    0.927964    0.927964    0.000000    0.000000   -0.000000
   89.935154    0.927992    0.927992    0.927992    0.000000    0.000000   -0.000000
   90.302237    0.930529    0.930529    0.930529    0.000000    0.000000   -0.000000
   90.669319    0.931779    0.931779    0.931779    0.000000    0.000000   -0.000000
   91.036401    0.931279    0.931279    0.931279    0.000000    0.000000   -0.000000
   91.403483    0.935512    0.935512    0.935512    0.000000    0.000000   -0.000000
   91.770566    0.932840    0.932840    0.932840    0.000000    0.000000   -0.000000
   92.137648    0.932216    0.932216    0.932216    0.000000    0.000000   -0.000000
   92.504730    0.932155    0.932155    0.932155    0.000000    0.000000   -0.000000
   92.871812    0.934960    0.934960    0.934960    0.000000    0.000000   -0.000000
   93.238895    0.936227    0.936227    0.936227    0.000000    0.000000   -0.000000
   93.605977    0.935699    0.935699    0.935699    0.000000    0.000000   -0.000000
   93.973059    0.939433    0.939433    0.939433    0.000000    0.000000   -0.000000
   94.340142    0.938211    0.938211    0.938211    0.000000    0.000000   -0.000000
   94.707224    0.934868    0.934868    0.934868    0.000000    0.000000   -0.000000
   95.074306    0.937733    0.937733    0.937733    0.000000    0.000000   -0.000000
   95.441388    0.938475    0.938475    0.938475    0.000000    0.000000   -0.000000
   95.808471    0.942641    0.942641    0.942641    0.000000    0.000000   -0.000000
   96.175553    0.937143    0.937143    0.937143    0.000000    0.000000   -0.000000
   96.542635    0.940932    0.940932    0.940932    0.000000    0.000000   -0.000000
   96.909717    0.939861    0.939861    0.939861    0.000000    0.000000   -0.000000
   97.276800    0.938924    0.938924    0.938924    0.000000    0.000000   -0.000000
   97.643882    0.941356    0.941356    0.941356    0.000000    0.000000   -0.000000
   98.010964    0.942863    0.942863    0.942863    0.000000    0.000000   -0.000000
   98.378046    0.941965    0.941965    0.941965    0.000000    0.000000   -0.000000
   98.745129    0.941337    0.941337    0.941337    0.000000    0.000000   -0.000000
   99.112211    0.942667    0.942667    0.942667    0.000000    0.000000   -0.000000
   99.479293    0.943181    0.943181    0.943181    0.000000    0.000000   -0.000000
   99.846375    0.943271    0.943271    0.943271    0.000000    0.000000   -0.000000
  100.213458    0.941908    0.941908    0.941908    0.000000    0.000000   -0.000000
  100.580540    0.941975    0.941975    0.941975    0.000000    0.000000   -0.000000
  100.947622    0.944666    0.944666    0.944666    0.000000    0.000000   -0.000000
  101.314705    0.946211    0.946211    0.946211    0.000000    0.000000   -0.000000
  101.681787    0.943920    0.943920    0.943920    0.000000    0.000000   -0.000000
  102.048869    0.943944    0.943944    0.943944    0.000000    0.000000   -0.000000
  102.415951    0.944976    0.944976    0.944976    0.000000    0.000000   -0.000000
  102.783034    0.946705    0.946705    0.946705    0.000000    0.000000   -0.000000
  103.150116    0.946642    0.946642    0.946642    0.000000    0.000000   -0.000000
  103.517198    0.947703    0.947703    0.947703    0.000000    0.000000   -0.000000
  103.884280    0.945687    0.945687    0.945687    0.000000    0.000000   -0.000000
  104.251363    0.943713    0.943713    0.943713    0.000000    0.000000   -0.000000
  104.618445    0.944120    0.944120    0.944120    0.000000    0.000000   -0.000000
  104.985527    0.946324    0.946324    0.946324    0.000000    0.000000   -0.000000
  105.352609    0.945513    0.945513    0.945513    0.000000    0.000000   -0.000000
  105.719692    0.945230    0.945230    0.945230    0.000000    0.000000   -0.000000
  106.086774    0.946720    0.946720    0.946720    0.000000    0.000000   -0.000000
  106.453856    0.948031    0.948031    0.948031    0.000000    0.000000   -0.000000
  106.820938    0.949115    0.949115    0.949115    0.000000    0.000000   -0.000000
  107.188021    0.949365    0.949365    0.949365    0.000000    0.000000   -0.000000
  107.555103    0.949142    0.949142    0.949142    0.000000    0.000000   -0.000000
  107.922185    0.948423    0.948423    0.948423    0.000000    0.000000   -0.000000
  108.289268    0.949687    0.949687    0.949687    0.000000    0.000000   -0.000000
  108.656350    0.947870    0.947870    0.947870    0.000000    0.000000   -0.000000
  109.023432    0.949836    0.949836    0.949836    0.000000    0.000000   -0.000000
  109.390514    0.950035    0.950035    0.950035    0.000000    0.000000   -0.000000
  109.757597    0.950750    0.950750    0.950750    0.000000    0.000000   -0.000000
  110.124679    0.951323    0.951323    0.951323    0.000000    0.000000   -0.000000
  110.491761    0.951956    0.951956    0.951956    0.000000    0.000000   -0.000000
  110.858843    0.951680    0.951680    0.951680    0.000000    0.000000   -0.000000
  111.225926    0.951764    0.951764    0.951764    0.000000    0.000000   -0.000000
  111.593008    0.953083    0.953083    0.953083    0.000000    0.000000   -0.000000
  111.960090    0.953179    0.953179    0.953179    0.000000    0.000000   -0.000000
  112.327172    0.953585    0.953585    0.953585    0.000000    0.000000   -0.000000
  112.694255    0.954338    0.954338    0.954338    0.000000    0.000000   -0.000000
  113.061337    0.954245    0.954245    0.954245    0.000000    0.000000   -0.000000
  113.428419    0.953651    0.953651    0.953651    0.000000    0.000000   -0.000000
  113.795501    0.954602    0.954602    0.954602    0.000000    0.000000   -0.000000
  114.162584    0.955274    0.955274    0.955274    0.000000    0.000000   -0.000000
  114.529666    0.955122    0.955122    0.955122    0.000000    0.000000   -0.000000
  114.896748    0.956053    0.956053    0.956053    0.000000    0.000000   -0.000000
  115.263830    0.957151    0.957151    0.957151    0.000000    0.000000   -0.000000
  115.630913    0.955362    0.955362    0.955362    0.000000    0.000000   -0.000000
  115.997995    0.957079    0.957079    0.957079    0.000000    0.000000   -0.000000
  116.365077    0.956730    0.956730    0.956730    0.000000    0.000000   -0.000000
  116.732160    0.957041    0.957041    0.957041    0.000000    0.000000   -0.000000
  117.099242    0.958075    0.958075    0.958075    0.000000    0.000000   -0.000000
  117.466324    0.957267    0.957267    0.957267    0.000000    0.000000   -0.000000
  117.833406    0.958176    0.958176    0.958176    0.000000    0.000000   -0.000000
  118.200489    0.957957    0.957957    0.957957    0.000000    0.000000   -0.000000
  118.567571    0.958652    0.958652    0.958652    0.000000    0.000000   -0.000000
  118.934653    0.959196    0.959196    0.959196    0.000000    0.000000   -0.000000
  119.301735    0.959828    0.959828    0.959828    0.000000    0.000000   -0.000000
  119.668818    0.959371    0.959371    0.959371    0.000000    0.000000   -0.000000
  120.035900    0.960024    0.960024    0.960024    0.000000    0.000000   -0.000000
  120.402982    0.960299    0.960299    0.960299    0.000000    0.000000   -0.000000
  120.770064    0.960541    0.960541    0.960541    0.000000    0.000000   -0.000000
  121.137147    0.960956    0.960956    0.960956    0.000000    0.000000   -0.000000
  121.504229    0.961425    0.961425    0.961425    0.000000    0.000000   -0.000000
  121.871311    0.961319    0.961319    0.961319    0.000000    0.000000   -0.000000
  122.238393    0.961699    0.961699    0.961699    0.000000    0.000000   -0.000000
  122.605476    0.962009    0.962009    0.962009    0.000000    0.000000   -0.000000
  122.972558    0.962298    0.962298    0.962298    0.000000    0.000000   -0.000000
  123.339640    0.962575    0.962575    0.962575    0.000000    0.000000   -0.000000
  123.706723    0.962844    0.962844    0.962844    0.000000    0.000000   -0.000000
  124.073805    0.963106    0.963106    0.963106    0.000000    0.000000   -0.000000
  124.440887    0.963364    0.963364    0.963364    0.000000    0.000000   -0.000000
  124.807969    0.963616    0.963616    0.963616    0.000000    0.000000   -0.000000
  125.175052    0.963865    0.963865    0.963865    0.000000    0.000000   -0.000000
  125.542134    0.964109    0.964109    0.964109    0.000000    0.000000   -0.000000
  125.909216    0.964350    0.964350    0.964350    0.000000    0.000000   -0.000000
  126.276298    0.964587    0.964587    0.964587    0.000000    0.000000   -0.000000
  126.643381    0.964821    0.964821    0.964821    0.000000    0.000000   -0.000000
  127.010463    0.965052    0.965052    0.965052    0.000000    0.000000   -0.000000
  127.377545    0.965280    0.965280    0.965280    0.000000    0.000000   -0.000000
  127.744627    0.965505    0.965505    0.965505    0.000000    0.000000   -0.000000
  128.111710    0.965727    0.965727    0.965727    0.000000    0.000000   -0.000000
  128.478792    0.965946    0.965946    0.965946    0.000000    0.000000   -0.000000
  128.845874    0.966163    0.966163    0.966163    0.000000    0.000000   -0.000000
  129.212956    0.966377    0.966377    0.966377    0.000000    0.000000   -0.000000
  129.580039    0.966589    0.966589    0.966589    0.000000    0.000000   -0.000000
  129.947121    0.966798    0.966798    0.966798    0.000000    0.000000   -0.000000
  130.314203    0.967005    0.967005    0.967005    0.000000    0.000000   -0.000000
  130.681286    0.967209    0.967209    0.967209    0.000000    0.000000   -0.000000
  131.048368    0.967412    0.967412    0.967412    0.000000    0.000000   -0.000000
  131.415450    0.967612    0.967612    0.967612    0.000000    0.000000   -0.000000
  131.782532    0.967810    0.967810    0.967810    0.000000    0.000000   -0.000000
  132.149615    0.968006    0.968006    0.968006    0.000000    0.000000   -0.000000
  132.516697    0.968200    0.968200    0.968200    0.000000    0.000000   -0.000000
  132.883779    0.968392    0.968392    0.968392    0.000000    0.000000   -0.000000
  133.250861    0.968582    0.968582    0.968582    0.000000    0.000000   -0.000000
  133.617944    0.968769    0.968769    0.968769    0.000000    0.000000   -0.000000
  133.985026    0.968955    0.968955    0.968955    0.000000    0.000000   -0.000000
  134.352108    0.969140    0.969140    0.969140    0.000000    0.000000   -0.000000
  134.719190    0.969322    0.969322    0.969322    0.000000    0.000000   -0.000000
  135.086273    0.969502    0.969502    0.969502    0.000000    0.000000   -0.000000
  135.453355    0.969681    0.969681    0.969681    0.000000    0.000000   -0.000000
  135.820437    0.969858    0.969858    0.969858    0.000000    0.000000   -0.000000
  136.187519    0.970033    0.970033    0.970033    0.000000    0.000000   -0.000000
  136.554602    0.970207    0.970207    0.970207    0.000000    0.000000   -0.000000
  136.921684    0.970379    0.970379    0.970379    0.000000    0.000000   -0.000000
  137.288766    0.970549    0.970549    0.970549    0.000000    0.000000   -0.000000
  137.655849    0.970718    0.970718    0.970718    0.000000    0.000000   -0.000000
  138.022931    0.970885    0.970885    0.970885    0.000000    0.000000   -0.000000
  138.390013    0.971051    0.971051    0.971051    0.000000    0.000000   -0.000000
  138.757095    0.971215    0.971215    0.971215    0.000000    0.000000   -0.000000
  139.124178    0.971377    0.971377    0.971377    0.000000    0.000000   -0.000000
  139.491260    0.971538    0.971538    0.971538    0.000000    0.000000   -0.000000
  139.858342    0.971698    0.971698    0.971698    0.000000    0.000000   -0.000000
  140.225424    0.971856    0.971856    0.971856    0.000000    0.000000   -0.000000
  140.592507    0.972013    0.972013    0.972013    0.000000    0.000000   -0.000000
  140.959589    0.972168    0.972168    0.972168    0.000000    0.000000   -0.000000
  141.326671    0.972322    0.972322    0.972322    0.000000    0.000000   -0.000000
  141.693753    0.972474    0.972474    0.972474    0.000000    0.000000   -0.000000
  142.060836    0.972626    0.972626    0.972626    0.000000    0.000000   -0.000000
  142.427918    0.972775    0.972775    0.972775    0.000000    0.000000   -0.000000
  142.795000    0.972924    0.972924    0.972924    0.000000    0.000000   -0.000000
  143.162082    0.973071    0.973071    0.973071    0.000000    0.000000   -0.000000
  143.529165    0.973217    0.973217    0.973217    0.000000    0.000000   -0.000000
  143.896247    0.973362    0.973362    0.973362    0.000000    0.000000   -0.000000
  144.263329    0.973505    0.973505    0.973505    0.000000    0.000000   -0.000000
  144.630412    0.973648    0.973648    0.973648    0.000000    0.000000   -0.000000
  144.997494    0.973789    0.973789    0.973789    0.000000    0.000000   -0.000000
  145.364576    0.973929    0.973929    0.973929    0.000000    0.000000   -0.000000
  145.731658    0.974067    0.974067    0.974067    0.000000    0.000000   -0.000000
  146.098741    0.974205    0.974205    0.974205    0.000000    0.000000   -0.000000
  146.465823    0.974341    0.974341    0.974341    0.000000    0.000000   -0.000000
 
 The outermost node in the dielectric function lies at epsilon=  23.3


--------------------------------------------------------------------------------------------------------


    OPTICS:  cpu time    4.1924: real time    4.2191
    4ORBIT:  cpu time    0.0000: real time    0.0000

 total amount of memory used by VASP MPI-rank0    41181. kBytes
=======================================================================

   base      :      30000. kBytes
   nonl-proj :       1907. kBytes
   grid      :       2084. kBytes
   one-center:         31. kBytes
   wavefun   :       7159. kBytes
 
  
  
 General timing and accounting informations for this job:
 ========================================================
  
                  Total CPU time used (sec):       11.654
                            User time (sec):       11.408
                          System time (sec):        0.246
                         Elapsed time (sec):       12.083
  
                   Maximum memory used (kb):       80980.
                   Average memory used (kb):           0.
  
                          Minor page faults:        32372
                          Major page faults:            0
                 Voluntary context switches:          303
